! Touchstone file exported from HFSS 2022.1.0
!        File:           C:/Users/Luis/Documents/Ansoft/Helix_1.7Ghz_ant.aedt
!        Generated:      11:52:03  jun. 24, 2025
!        Design:         HFSSDesign1
!        Project:        Helix_1.7Ghz_ant
!        Setup:          Setup1
!        Solution:       Sweep
!
! Variables:
!        N_turns = 6
!        Pitch_per_turn = 82.5mm
!        Thickness = 75um
!        Tube_depth = 5mm
!        gnd_plane_x = 300mm
!        gnd_plane_y = 300mm
!        ini_h = 3mm
!        rad = 25mm
!        w = 10mm
!
# GHz S MA R 50.000000
! Terminal data exported
! Port[1] = 1
! Port[2] = 2
! Port[3] = 3
! Port[4] = 4
1.5                            0.326233265667331 -14.0541408039607 0.444288572321656 -94.324543225148 0.136510476794824 123.343652105222 0.436006735156487 -93.7660276594461 
                               0.444288572321656 -94.324543225148 0.321419348437671 -16.6745392752261 0.442434463410898 -93.7032498895038 0.117384984421369 129.266626100461 
                               0.136510476794824 123.343652105222 0.442434463410898 -93.7032498895038 0.318861882719319 -14.4200895199305 0.440525201680431 -94.952940891766 
                               0.436006735156487 -93.7660276594461 0.117384984421369 129.266626100461 0.440525201680431 -94.952940891766 0.317844887446357 -16.4045673058897 
! Gamma         0                0                0                0                0                0                0                0                
! Port Impedance         50               0                50               0                50               0                50               0                
1.50201005025126               0.336774791708934 -14.5009375933206 0.437720086203345 -100.177215623824 0.122904670361698 121.189670895837 0.429121408008124 -99.6703639386176 
                               0.437720086203335 -100.177215623824 0.330619756804912 -17.1032368693826 0.43592637899224 -99.6109329673047 0.105005378563418 128.49511319122  
                               0.122904670361698 121.189670895837 0.43592637899224 -99.6109329673047 0.329237463403252 -14.781741679242 0.43421269736764 -100.865461169846 
                               0.429121408008124 -99.6703639386179 0.105005378563431 128.49511319122  0.434212697367642 -100.865461169847 0.32662670988813 -16.7082388893571 
! Gamma         0                0                0                0                0                0                0                0                
! Port Impedance         50               0                50               0                50               0                50               0                
1.50402010050251               0.342810531837506 -15.0428972104419 0.430984410366824 -106.030270148464 0.112232724848691 120.595297128324 0.422090735638762 -105.577998565182 
                               0.430984410366811 -106.030270148464 0.335286148148475 -17.6454625494801 0.429297349858665 -105.518634915301 0.0961812356182332 129.547343914895 
                               0.112232724848692 120.595297128323 0.429297349858665 -105.518634915301 0.335053134114371 -15.2497017751311 0.427710025384783 -106.780401998813 
                               0.422090735638761 -105.577998565182 0.096181235618249 129.547343914893 0.427710025384785 -106.780401998815 0.330984914230004 -17.1027027685838 
! Gamma         0                0                0                0                0                0                0                0                
! Port Impedance         50               0                50               0                50               0                50               0                
1.50603015075377               0.344567970282128 -15.4507197834368 0.423985886719291 -111.968376145037 0.105243837408853 121.446424833012 0.414804356614088 -111.576142605692 
                               0.423985886719279 -111.968376145036 0.335540196282269 -18.06348650979  0.422441578592539 -111.513178594505 0.091717707390395 131.999386859733 
                               0.105243837408854 121.446424833012 0.422441578592539 -111.513178594505 0.336540829514146 -15.5793847469839 0.420923446052292 -112.782850903754 
                               0.414804356614087 -111.576142605693 0.0917177073904071 131.999386859728 0.420923446052292 -112.782850903755 0.331088548485579 -17.3441501789283 
! Gamma         0                0                0                0                0                0                0                0                
! Port Impedance         50               0                50               0                50               0                50               0                
1.50804020100503               0.342503118997475 -15.5057594543705 0.416478824343404 -118.077021471687 0.10268025125581 123.192463410693 0.407003970070168 -117.752078255722 
                               0.416478824343397 -118.077021471686 0.33174090545506 -18.1188653155474 0.415102527671588 -117.68139514854 0.0921957917625608 134.785549210038 
                               0.10268025125581 123.192463410693 0.415102527671589 -117.68139514854 0.334173839645812 -15.5383645016106 0.413608911940891 -118.958730471841 
                               0.407003970070166 -117.752078255722 0.0921957917625671 134.785549210033 0.41360891194089 -118.958730471842 0.327367655331986 -17.1881314757478 
! Gamma         0                0                0                0                0                0                0                0                
! Port Impedance         50               0                50               0                50               0                50               0                
1.51005025125628               0.337417001221766 -14.9705456544345 0.408057385801696 -124.439305982497 0.10498671358825 124.816585745442 0.39827597416654 -124.19008229873 
                               0.408057385801693 -124.439305982496 0.324619738204986 -17.5382095705052 0.406864229723187 -124.107026668664 0.097628107170583 136.512333551847 
                               0.10498671358825 124.816585745442 0.406864229723187 -124.107026668664 0.328786991833659 -14.8740416669807 0.405362040465522 -125.391565689992 
                               0.39827597416654 -124.19008229873 0.0976281071705846 136.512333551844 0.405362040465521 -125.391565689992 0.320656503676521 -16.358595888005 
! Gamma         0                0                0                0                0                0                0                0                
! Port Impedance         50               0                50               0                50               0                50               0                
1.51206030150754               0.330692518277433 -13.5849094284545 0.398150412162938 -131.129836065485 0.112041300600275 125.185354174678 0.388048888538545 -130.965446173973 
                               0.398150412162937 -131.129836065485 0.315557799106667 -16.0026311015055 0.397146913277665 -130.86472462219 0.10739488923228 136.124068141143 
                               0.112041300600275 125.185354174678 0.397146913277665 -130.86472462219 0.321825888662342 -13.3094985088694 0.395613061137946 -132.156358493239 
                               0.388048888538545 -130.965446173973 0.10739488923228 136.124068141142 0.395613061137946 -132.156358493239 0.312472261144149 -14.5456130443058 
! Gamma         0                0                0                0                0                0                0                0                
! Port Impedance         50               0                50               0                50               0                50               0                
1.51407035175879               0.324591288016325 -11.1161463650784 0.386040707209945 -138.204404007493 0.12313678585982 123.527562964778 0.375615051973083 -138.134274160352 
                               0.386040707209946 -138.204404007493 0.306959114512513 -13.1987370977841 0.385226716991981 -138.009823981532 0.12048725852361 133.233877667192 
                               0.12313678585982 123.527562964778 0.385226716991981 -138.009823981532 0.315659523731898 -10.5994072296601 0.383646217379948 -139.309247133926 
                               0.375615051973083 -138.134274160352 0.120487258523611 133.233877667193 0.383646217379949 -139.309247133926 0.30536237861305 -11.4721880658229 
! Gamma         0                0                0                0                0                0                0                0                
! Port Impedance         50               0                50               0                50               0                50               0                
1.51608040201005               0.322393939018985 -7.50324109603941 0.370937938320686 -145.68496489121 0.137172053940226 119.60688614546  0.360205034747299 -145.718578262566 
                               0.370937938320687 -145.68496489121 0.302484355827097 -8.99586771916731 0.3703087583954  -145.563410563922 0.135752018475116 127.960878645166 
                               0.137172053940226 119.60688614546  0.3703087583954  -145.563410563922 0.313720050765408 -6.69066456456728 0.368672732767526 -146.872458401298 
                               0.360205034747299 -145.718578262566 0.135752018475118 127.960878645168 0.368672732767528 -146.872458401297 0.303049101768062 -7.08702258297081 
! Gamma         0                0                0                0                0                0                0                0                
! Port Impedance         50               0                50               0                50               0                50               0                
1.51809045226131               0.327935392403785 -3.07389770943697 0.352133423048784 -153.541784587684 0.152844245436453 113.58215020351  0.341141527386012 -153.688544558885 
                               0.352133423048785 -153.541784587684 0.30657383774355 -3.74813231657133 0.351681811005826 -153.494556908179 0.151985503878459 120.656530102917 
                               0.152844245436454 113.58215020351  0.351681811005826 -153.494556908179 0.319982062358901 -1.95962903991116 0.349985549351947 -154.816423266976 
                               0.341141527386013 -153.688544558885 0.151985503878462 120.656530102918 0.349985549351949 -154.816423266975 0.309800495066498 -1.84573929295147 
! Gamma         0                0                0                0                0                0                0                0                
! Port Impedance         50               0                50               0                50               0                50               0                
1.52010050251256               0.344198589280349 1.37378246686575 0.329235037970361 -161.678632228109 0.168776708027143 105.812981749822 0.318069238595458 -161.947824295881 
                               0.32923503797036 -161.67863222811 0.322747468171418 1.56071623061208 0.328952794171628 -161.705583768509 0.167967314968642 111.746635217212 
                               0.168776708027143 105.812981749822 0.328952794171628 -161.705583768509 0.337441077688136 2.71634242289943 0.327194026315638 -163.044927196956 
                               0.318069238595459 -161.947824295881 0.167967314968645 111.746635217213 0.32719402631564 -163.044927196956 0.328670376273752 3.23041203320948 
! Gamma         0                0                0                0                0                0                0                0                
! Port Impedance         50               0                50               0                50               0                50               0                
1.52211055276382               0.371623077739469 4.88304220371077 0.302412951027094 -169.930470337574 0.183657777775905 96.7371233372375 0.291191297859442 -170.331253695944 
                               0.302412951027093 -169.930470337574 0.351498759709766 5.73494899069834 0.30229192762528 -170.029758489837 0.182553064152965 101.67318011505  
                               0.183657777775905 96.7371233372374 0.30229192762528 -170.029758489837 0.366364358760156 6.32760091850247 0.300469336847158 -171.392743193779 
                               0.291191297859442 -170.331253695944 0.182553064152968 101.67318011505  0.30046933684716 -171.392743193779 0.359619142968145 7.03133866303711 
! Gamma         0                0                0                0                0                0                0                0                
! Port Impedance         50               0                50               0                50               0                50               0                
1.52412060301508               0.407664714574873 6.85051628343237 0.272520478056221 -178.08167080522 0.196433630503883 86.804743655312  0.261379555919163 -178.622978199116 
                               0.27252047805622 -178.08167080522 0.389834579480015 8.06459195155492 0.272553268227578 -178.249412923793 0.194847768799673 90.8690103044506 
                               0.196433630503883 86.8047436553119 0.272553268227578 -178.249412923793 0.403953066518133 8.28175195098106 0.270665051870569 -179.643761042499 
                               0.261379555919163 -178.622978199116 0.194847768799674 90.8690103044506 0.270665051870569 -179.643761042499 0.399370986107191 8.9797101976626  
! Gamma         0                0                0                0                0                0                0                0                
! Port Impedance         50               0                50               0                50               0                50               0                
1.52613065326633               0.448071084398689 7.22505318784939 0.240974408764047 174.09657724309  0.20649297221271 76.4329388737959 0.230048717777958 173.406349294079 
                               0.240974408764047 174.09657724309  0.432925395892559 8.54496664829796 0.241155316876735 173.866850789949 0.204377216484639 79.7304438029636 
                               0.206492972212709 76.4329388737958 0.241155316876735 173.866850789949 0.445762394378533 8.57476833565087 0.239197527574386 172.431748646174 
                               0.230048717777957 173.406349294079 0.204377216484639 79.7304438029635 0.239197527574386 172.431748646174 0.443115464750579 9.15043048271229 
! Gamma         0                0                0                0                0                0                0                0                
! Port Impedance         50               0                50               0                50               0                50               0                
1.52814070351759               0.488660789686598 6.3205235964479  0.209417977000749 166.803077397897 0.213736780884214 65.9690485796002 0.198821246056067 165.956614266989 
                               0.209417977000751 166.803077397898 0.476169262569013 7.58705594230794 0.20974462331876 166.521200576169 0.211146440392505 68.5869760598595 
                               0.213736780884214 65.9690485796001 0.209744623318759 166.521200576169 0.487526670837816 7.56322898162492 0.207709387868125 165.034178128328 
                               0.198821246056067 165.956614266989 0.211146440392504 68.5869760598593 0.207709387868125 165.034178128328 0.486421438061474 7.97061641230461 
! Gamma         0                0                0                0                0                0                0                0                
! Port Impedance         50               0                50               0                50               0                50               0                
1.53015075376884               0.526429581336627 4.55111045399722 0.179335590574599 160.174745745175 0.218491594367861 55.6692438406337 0.169150520271273 159.166487296441 
                               0.1793355905746  160.174745745175 0.516340234362545 5.68358679502307 0.179810785254133 159.854853344329 0.215547896720267 57.6812790138549 
                               0.218491594367861 55.6692438406337 0.179810785254133 159.854853344329 0.526235025098152 5.68610790053998 0.17768500816982 158.303050590506 
                               0.169150520271273 159.166487296441 0.215547896720266 57.681279013855  0.17768500816982 158.303050590506 0.526255339890656 5.9192933999651  
! Gamma         0                0                0                0                0                0                0                0                
! Port Impedance         50               0                50               0                50               0                50               0                
1.5321608040201                0.559781566324091 2.27609446987864 0.151797437890668 154.274481545029 0.221326307241308 45.6975080382415 0.142075061967043 153.101189617429 
                               0.151797437890669 154.274481545029 0.551758337141808 3.24106066655143 0.152430531928613 153.93598640356  0.218181501747643 47.1677491260558 
                               0.221326307241308 45.6975080382416 0.152430531928612 153.93598640356  0.560322293081802 3.31344248691519 0.150195737966884 152.305362429014 
                               0.142075061967043 153.101189617429 0.218181501747642 47.1677491260558 0.150195737966884 152.305362429014 0.561096355958109 3.38359903595264 
! Gamma         0                0                0                0                0                0                0                0                
! Port Impedance         50               0                50               0                50               0                50               0                
1.53417085427136               0.588238849581097 -0.247289158361091 0.127394917667185 149.094779120466 0.222869779608343 36.1407015386404 0.118160468707409 147.755618092551 
                               0.127394917667186 149.094779120466 0.581936769900909 0.541191983960565 0.128202072079746 148.763299013986 0.219681161181517 37.1265857638591 
                               0.222869779608343 36.1407015386404 0.128202072079746 148.763299013986 0.58935268004265 0.70560439217492 0.125835564739368 147.039777927938 
                               0.118160468707408 147.755618092551 0.219681161181517 37.1265857638591 0.125835564739367 147.039777927938 0.590572610223776 0.629029842734034 
! Gamma         0                0                0                0                0                0                0                0                
! Port Impedance         50               0                50               0                50               0                50               0                
1.53618090452261               0.612010121212542 -2.85615892311697 0.106314466708822 144.566714989863 0.223689682303101 27.0302453460239 0.0975756238331056 143.062159426291 
                               0.106314466708822 144.566714989863 0.607110290881941 -2.24170228614268 0.107317773833173 144.274949907584 0.22060372409471 27.5844546588085 
                               0.223689682303101 27.0302453460239 0.107317773833173 144.274949907584 0.613575490591534 -1.97478206480918 0.104794784189549 142.446257315208 
                               0.0975756238331053 143.062159426291 0.22060372409471 27.5844546588086 0.104794784189549 142.446257315208 0.614994961799624 -2.18176685741276 
! Gamma         0                0                0                0                0                0                0                0                
! Port Impedance         50               0                50               0                50               0                50               0                
1.53819095477387               0.631629139342692 -5.45764477279036 0.0884643834498124 140.565104411505 0.224239830093544 18.3625241261589 0.0802190189555865 138.893408099411 
                               0.0884643834498114 140.565104411504 0.627851520977374 -5.01007374564168 0.0896900463438193 140.353872596068 0.221384559546702 18.5340428295321 
                               0.224239830093544 18.3625241261589 0.0896900463438192 140.353872596068 0.633558609526022 -4.63634061890863 0.0869863502740565 138.411776833577 
                               0.0802190189555862 138.893408099411 0.221384559546702 18.534042829532  0.0869863502740565 138.411776833577 0.634982864576383 -4.95917246999415 
! Gamma         0                0                0                0                0                0                0                0                
! Port Impedance         50               0                50               0                50               0                50               0                
1.54020100502513               0.647721316941795 -8.00521947707491 0.0735950334197225 136.905104655487 0.224854808265587 10.1143267868318 0.0658372556435912 135.054215185838 
                               0.0735950334197226 136.905104655487 0.644826353762053 -7.71603367113864 0.0750707803837399 136.825226345525 0.222337655559181 9.94888703501277 
                               0.224854808265587 10.1143267868318 0.0750707803837398 136.825226345525 0.649954121600201 -7.23430747736936 0.0721652834339503 134.767157062838 
                               0.0658372556435912 135.054215185838 0.222337655559181 9.9488870350127  0.0721652834339501 134.767157062838 0.651228833330535 -7.66057209609213 
! Gamma         0                0                0                0                0                0                0                0                
! Port Impedance         50               0                50               0                50               0                50               0                
1.54221105527638               0.66087979679853 -10.4808746885374 0.0613895854462974 133.330180320538 0.225767684397969 2.25294777514554 0.0541141628285623 131.262243527764 
                               0.0613895854462969 133.330180320538 0.658664984182802 -10.3417745053815 0.0631413137290867 133.44683016895  0.223676419238507 1.79309210101929 
                               0.225767684397969 2.25294777514554 0.0631413137290867 133.44683016895  0.663375194473859 -9.75232148916553 0.0600181456604513 131.274527023448 
                               0.0541141628285622 131.262243527764 0.223676419238506 1.79309210101922 0.0600181456604511 131.274527023448 0.664376574502087 -10.2716369173714 
! Gamma         0                0                0                0                0                0                0                0                
! Port Impedance         50               0                50               0                50               0                50               0                
1.54422110552764               0.671612877504654 -12.8832116457584 0.0515263139448169 129.496229243292 0.227134380288515 -5.25792460099649 0.0447325423893461 127.122600043817 
                               0.0515263139448167 129.496229243293 0.66990751089241 -12.8867968704823 0.0535736953088121 129.898595817498 0.225539511186443 -5.97297466958811 
                               0.227134380288515 -5.25792460099655 0.0535736953088121 129.898595817498 0.674344876503094 -12.1903904166359 0.0502234213039621 127.60977217516  
                               0.044732542389346 127.122600043817 0.225539511186443 -5.97297466958817 0.050223421303962 127.609772175159 0.6749716231033  -12.794146500649 
! Gamma         0                0                0                0                0                0                0                0                
! Port Impedance         50               0                50               0                50               0                50               0                
1.54623115577889               0.680330507057652 -15.2200316412136 0.0437229981667334 124.964356873752 0.229056494475911 -12.4551440660643 0.0374199801391301 122.115112966496 
                               0.0437229981667331 124.964356873753 0.678990180323094 -15.3600872587774 0.0460733520715756 125.783445795026 0.228014166990459 -13.3896756508043 
                               0.229056494475911 -12.4551440660643 0.0460733520715756 125.783445795026 0.683283957549154 -14.5574667123382 0.0424932698221292 123.35191573722  
                               0.0374199801391301 122.115112966496 0.228014166990459 -13.3896756508044 0.042493269822129 123.35191573722  0.683450932122657 -15.2385575371795 
! Gamma         0                0                0                0                0                0                0                0                
! Port Impedance         50               0                50               0                50               0                50               0                
1.54824120603015               0.687348922622028 -17.5039580078476 0.0377738237260203 119.229328956565 0.231599673762902 -19.374741554929 0.0319892649238106 115.640361501146 
                               0.0377738237260204 119.229328956565 0.686250455080085 -17.7755522474701 0.0404129960563403 120.660862560591 0.231154553613389 -20.4967066425191 
                               0.231599673762902 -19.374741554929 0.0404129960563403 120.660862560591 0.690516759057647 -16.8670960915916 0.0366074753323294 118.005236646783 
                               0.0319892649238105 115.640361501146 0.231154553613389 -20.4967066425191 0.0366074753323294 118.005236646783 0.690150066440149 -17.6196896997459 
! Gamma         0                0                0                0                0                0                0                0                
! Port Impedance         50               0                50               0                50               0                50               0                
1.55025125628141               0.692901788607127 -19.7499710981547 0.0335813182585124 111.832356192123 0.234807255301543 -26.0515002565727 0.028372067747449 107.209562548796 
                               0.0335813182585128 111.832356192124 0.69193879666538 -20.1494778701147 0.0364607618706916 114.141976824621 0.234995149416511 -27.3325945716148 
                               0.234807255301543 -26.0515002565727 0.0364607618706916 114.141976824621 0.696283165581078 -19.1349908559097 0.0324437037614052 111.099876964771 
                               0.028372067747449 107.209562548796 0.234995149416511 -27.3325945716147 0.0324437037614052 111.099876964771 0.69531629299837 -19.9543451286046 
! Gamma         0                0                0                0                0                0                0                0                
! Port Impedance         50               0                50               0                50               0                50               0                
1.55226130653266               0.697152066173142 -21.974103675961 0.0311690665663467 102.604591255035 0.23870988825557 -32.5190122274752 0.0266193864134902 96.8321767071007 
                               0.0311690665663471 102.604591255036 0.696231173224853 -22.4992057506412 0.0341934077634003 106.062747263029 0.239560002531961 -33.9346617962058 
                               0.238709888255571 -32.5190122274752 0.0341934077634003 106.062747263029 0.700751159880293 -21.3777635643362 0.0299933663473266 102.416567727874 
                               0.0266193864134902 96.8321767071007 0.239560002531961 -33.9346617962057 0.0299933663473266 102.416567727874 0.699121874475546 -22.2600848320341 
! Gamma         0                0                0                0                0                0                0                0                
! Port Impedance         50               0                50               0                50               0                50               0                
1.55427135678392               0.700202092571248 -24.1928215102481 0.0306444801640548 91.960451656334  0.243332034315639 -38.8099629104753 0.0268293349555025 85.3539660145424 
                               0.0306444801640548 91.960451656333  0.699239673995328 -24.8425234150866 0.0336750476926625 96.674979692378  0.244868840191391 -40.3392235413622 
                               0.243332034315639 -38.8099629104753 0.0336750476926626 96.674979692378  0.704027387456942 -23.6123418634157 0.0293360850381546 92.2734378395912 
                               0.0268293349555026 85.3539660145455 0.244868840191391 -40.3392235413622 0.0293360850381546 92.2734378395912 0.701675151075487 -24.5546794051623 
! Gamma         0                0                0                0                0                0                0                0                
! Port Impedance         50               0                50               0                50               0                50               0                
1.55628140703518               0.702100957876966 -26.4227989448843 0.0321044501905216 80.9037068836099 0.248696117520665 -44.9565143142119 0.0290295708058082 74.1590922329622 
                               0.032104450190522 80.9037068836074 0.701020282792048 -27.1974654591769 0.0349943850283687 86.6671763403995 0.250940831568951 -46.5819003212498 
                               0.248696117520665 -44.9565143142119 0.0349943850283687 86.6671763403995 0.70616488264864 -25.8557736394495 0.0305606482144782 81.5760865000808 
                               0.0290295708058086 74.1590922329624 0.250940831568951 -46.5819003212498 0.0305606482144784 81.5760865000809 0.703028596546705 -26.8559429549123 